# vtk DataFile Version 5.1
vtk output
ASCII
DATASET UNSTRUCTURED_GRID
POINTS 270 double
4.2447199821 0.070917099714 -0.059001598507 4.2460198402 0.075176402926 -0.057156100869 4.2979102135 0.16644400358 0.01602640003 
4.3001298904 0.16889800131 0.019132200629 4.3642201424 0.21919000149 0.10750100017 4.3690099716 0.22175300121 0.11398299783 
4.4409499168 0.24618700147 0.2082439959 4.4410400391 0.24620200694 0.2083529979 4.4144902229 -0.24001300335 0.17429900169 
4.4092698097 -0.23842899501 0.16749200225 4.2679400444 -0.125 -0.026128700003 4.2657299042 -0.12108100206 -0.029258800671 
4.2707400322 -0.1297249943 -0.022179100662 4.276599884 -0.13891999424 -0.013914800249 4.2736001015 -0.13432499766 -0.018142700195 
4.2828497887 -0.1478510052 -0.0051065199077 4.2796602249 -0.14339399338 -0.0096027301624 4.2895002365 -0.15650600195 0.0042296000756 
4.2861099243 -0.15218999982 -0.00052880198928 4.3001298904 -0.16889800131 0.019132200629 4.2979102135 -0.16644400358 0.01602640003 
4.2965102196 -0.16486400366 0.014068700373 4.2929401398 -0.16069699824 0.0090573001653 4.3038802147 -0.17290200293 0.024376399815 
4.3076701164 -0.1767770052 0.029670700431 4.3115901947 -0.18061099946 0.035134401172 4.3155498505 -0.18431900442 0.040646199137 
4.319630146 -0.18797600269 0.046315100044 4.3237500191 -0.19151100516 0.052030298859 4.3279800415 -0.19498500228 0.05788949877 
4.3322601318 -0.19833800197 0.063793197274 4.3366298676 -0.20162199438 0.069826900959 4.341050148 -0.20478799939 0.075903296471 
4.3455700874 -0.20787599683 0.082095101476 4.3501200676 -0.21084800363 0.088327996433 4.3690099716 -0.22175300121 0.11398299783 
4.3642201424 -0.21919099987 0.10750400275 4.3594498634 -0.21650600433 0.10103300214 4.35476017 -0.21373400092 0.094660699368 
4.388780117 -0.23096999526 0.1404709965 4.383769989 -0.22883300483 0.13380299509 4.3787899017 -0.22657699883 0.12714099884 
4.3738899231 -0.22422599792 0.1205580011 4.4040899277 -0.23673500121 0.16071200371 4.3989400864 -0.2349230051 0.15393400192 
4.3938498497 -0.23300500214 0.14720000327 4.4197402 -0.24148100615 0.18110699952 4.4250302315 -0.24283500016 0.18792299926 
4.4303398132 -0.24407400191 0.19473999739 4.435669899 -0.24519599974 0.20154699683 4.4410400391 -0.24620200694 0.2083529979 
4.4464101791 -0.24708899856 0.21513199806 4.4518198967 -0.24786099792 0.22190900147 4.4572200775 -0.24851299822 0.22864100337 
4.4626598358 -0.24904899299 0.23537099361 4.4680800438 -0.24946400523 0.24203899503 4.4735398293 -0.24976199865 0.24870400131 
4.4789800644 -0.24993999302 0.25529199839 4.4844498634 -0.25 0.26187500358 4.4898900986 -0.2499410063 0.26837900281 
4.495349884 -0.24976199865 0.27485099435 4.5007901192 -0.24946500361 0.28124499321 4.5062398911 -0.24904899299 0.28760200739 
4.5116500854 -0.24851599336 0.29387000203 4.5170798302 -0.24786099792 0.30010101199 4.5224599838 -0.24709300697 0.3062300086 
4.5278601646 -0.24620200694 0.31232199073 4.5331997871 -0.24519999325 0.31830000877 4.5385599136 -0.24407400191 0.32424101233 
4.5438499451 -0.24284100533 0.33005800843 4.5491499901 -0.24148100615 0.33583700657 4.55437994 -0.24001899362 0.34148401022 
4.5596199036 -0.23842899501 0.34709298611 4.5647802353 -0.23674100637 0.35256099701 4.5655999184 -0.23646099865 0.35342800617 
4.57502985 -0.23301300406 0.36327499151 4.5699501038 -0.2349230051 0.35799199343 4.585100174 -0.22884100676 0.37361299992 
4.5801200867 -0.23096999526 0.36852100492 4.5949997902 -0.22422599792 0.38357898593 4.5900998116 -0.22657699883 0.37866801023 
4.6046800613 -0.21919099987 0.39313599467 4.5998802185 -0.22175300121 0.38842400908 4.6141200066 -0.21373899281 0.40229201317 
4.6094498634 -0.21650600433 0.39778199792 4.6233201027 -0.20788100362 0.4110429883 4.6187701225 -0.21084800363 0.40673699975 
4.6322498322 -0.20162700117 0.41938599944 4.6278400421 -0.20478799939 0.41528499126 4.6409101486 -0.19498899579 0.42732000351 
4.6366400719 -0.19833800197 0.42342400551 4.6492600441 -0.1879799962 0.43484500051 4.6451401711 -0.19151100516 0.43115401268 
4.6572999954 -0.18061199784 0.44196298718 4.6533498764 -0.18431900442 0.43847501278 4.6650300026 -0.17288899422 0.44868400693 
4.6612200737 -0.1767770052 0.44538900256 4.6723999977 -0.16484999657 0.45498999953 4.6687698364 -0.16889800131 0.45189699531 
4.6794099808 -0.15649600327 0.46089598536 4.6759600639 -0.16069699824 0.45800301433 4.6860499382 -0.14784500003 0.46640598774 
4.6827898026 -0.15218999982 0.46371099353 4.6953001022 -0.13432499766 0.47394600511 4.6934199333 -0.13723100722 0.47242599726 
4.6922998428 -0.13891300559 0.47152298689 4.6892399788 -0.14339399338 0.46902400255 4.6981601715 -0.12971399724 0.4762519896 
4.7009501457 -0.125 0.47848200798 4.7036299706 -0.12025400251 0.48060300946 4.7062001228 -0.11543700099 0.48263600469 
4.7086601257 -0.11058100313 0.48456698656 4.7110199928 -0.10565499961 0.48641198874 4.7121300697 -0.1032499969 0.48727199435 
4.7132701874 -0.10069800168 0.48815599084 4.7193698883 -0.085505001247 0.49284699559 4.7174401283 -0.09062319994 0.49137300253 
4.7167000771 -0.092514298856 0.49080100656 4.7154197693 -0.095670901239 0.48981401324 4.7211699486 -0.08037610352 0.49422198534 
4.7228798866 -0.075176402926 0.49551400542 4.724460125 -0.069973401725 0.49670699239 4.7259302139 -0.064704798162 0.49781799316 
4.7272801399 -0.059419900179 0.49883499742 4.7285199165 -0.05410990119 0.49976199865 4.729640007 -0.048773400486 0.50059998035 
4.7306499481 -0.043411999941 0.50134897232 4.7315001488 -0.038275200874 0.50198197365 4.7315402031 -0.038034200668 0.50200897455 
4.7329602242 -0.027222700417 0.50306499004 4.7323098183 -0.032631501555 0.50258201361 4.7339100838 -0.016359299421 0.50376701355 
4.7335000038 -0.021788900718 0.5034610033 4.734389782 -0.0054649598897 0.50411897898 4.7342100143 -0.010904800147 0.50398701429 
4.7344498634 -6.5098002477e-17 0.50416302681 4.7339100838 0.01636070013 0.50376701355 4.7342100143 0.010904800147 0.50398701429 
4.7323098183 0.032631501555 0.50258201361 4.7329602242 0.027223899961 0.50306499004 4.7086601257 0.11058399826 0.48456600308 
4.7110199928 0.10565499961 0.48641198874 4.6981701851 0.12970100343 0.47625800967 4.7009501457 0.125 0.47848200798 
4.6922998428 0.13891300559 0.47152200341 4.6892399788 0.14339399338 0.46902400255 4.6860399246 0.14784899354 0.46640300751 
4.6827898026 0.15218999982 0.46371099353 4.6793999672 0.15649999678 0.46089398861 4.6759600639 0.16069699824 0.45800301433 
4.6723899841 0.1648530066 0.45498800278 4.6687698364 0.16889800131 0.45189699531 4.6612200737 0.1767770052 0.44538900256 
4.665019989 0.17289300263 0.44868099689 4.6451401711 0.19151100516 0.43115401268 4.6492700577 0.1879709959 0.43485501409 
4.6533498764 0.18431900442 0.43847501278 4.657310009 0.18060399592 0.44197100401 4.6278400421 0.20478799939 0.41528499126 
4.6322498322 0.20162899792 0.41938298941 4.6366400719 0.19833800197 0.42342400551 4.640900135 0.19498999417 0.42731899023 
4.6094498634 0.21650600433 0.39778199792 4.6141200066 0.21374200284 0.40228798985 4.6187701225 0.21084800363 0.40673699975 
4.6233201027 0.20788300037 0.41103899479 4.5949997902 0.22422799468 0.38357499242 4.5998802185 0.22175300121 0.38842400908 
4.6046700478 0.21919299662 0.39313200116 4.5699501038 0.2349230051 0.35799199343 4.5750398636 0.23300799727 0.36328700185 
4.5801200867 0.23096999526 0.36852100492 4.5491499901 0.24148100615 0.33583700657 4.55437994 0.2400200069 0.34148100019 
4.5596199036 0.23842899501 0.34709298611 4.5647802353 0.23674200475 0.35255798697 4.5278601646 0.24620200694 0.31232199073 
4.5331997871 0.24520100653 0.31829699874 4.5385599136 0.24407400191 0.32424101233 4.5438499451 0.24284100533 0.33005398512 
4.5062398911 0.24904899299 0.28760200739 4.5116500854 0.24851599336 0.293866992 4.5170798302 0.24786099792 0.30010101199 
4.5224599838 0.24709300697 0.30622699857 4.4844498634 0.25 0.26187500358 4.4898900986 0.2499410063 0.26837700605 
4.495349884 0.24976199865 0.27485099435 4.5007901192 0.24946600199 0.2812409997 4.4626598358 0.24904899299 0.23537099361 
4.4680900574 0.24946400523 0.24205100536 4.4735398293 0.24976199865 0.24870400131 4.478990078 0.24993999302 0.25530400872 
4.4464101791 0.24708899856 0.21512900293 4.4518198967 0.24786099792 0.22190900147 4.4572200775 0.24851299822 0.22864000499 
4.4303398132 0.24407400191 0.19473999739 4.435669899 0.24519500136 0.2015440017 4.4092698097 0.23842899501 0.16749200225 
4.4144902229 0.24001300335 0.17429600656 4.4197402 0.24148100615 0.18110699952 4.4250202179 0.24283500016 0.18792000413 
4.388780117 0.23096999526 0.1404709965 4.3938498497 0.23300500214 0.14719699323 4.3989400864 0.2349230051 0.15393400192 
4.4040899277 0.23673400283 0.16070899367 4.3738899231 0.22422499955 0.12055599689 4.3787899017 0.22657699883 0.12714099884 
4.383769989 0.22883200645 0.13379999995 4.3501200676 0.21084800363 0.088327996433 4.3547701836 0.21373899281 0.094672597945 
4.3594498634 0.21650600433 0.10103300214 4.3634500504 0.21876999736 0.10646700114 4.3322601318 0.19833800197 0.063793197274 
4.3366298676 0.20161999762 0.069823697209 4.341050148 0.20478799939 0.075903296471 4.345580101 0.20788100362 0.082106903195 
4.3155498505 0.18431900442 0.040646199137 4.319630146 0.18797400594 0.04631190002 4.3237500191 0.19151100516 0.052030298859 
4.3279800415 0.19498300552 0.057886298746 4.3038802147 0.1728989929 0.024373199791 4.3076701164 0.1767770052 0.029670700431 
4.3115901947 0.18060900271 0.035131201148 4.2861099243 0.15218999982 -0.00052880198928 4.2895002365 0.15650899708 0.0042337998748 
4.2929401398 0.16069699824 0.0090573001653 4.2965102196 0.16486099362 0.014065399766 4.2736001015 0.13432499766 -0.018142700195 
4.2765898705 0.13891400397 -0.013920799829 4.2796602249 0.14339399338 -0.0096027301624 4.2828598022 0.1478600055 -0.0050974199548 
4.2626900673 0.11543700099 -0.033541999757 4.2652797699 0.12027499825 -0.029886700213 4.2679400444 0.125 -0.026128700003 
4.2707300186 0.12971700728 -0.022185599431 4.2534799576 0.095670901239 -0.046585198492 4.2556400299 0.100722 -0.043529998511 
4.256770134 0.10325399786 -0.041928399354 4.2578701973 0.10565499961 -0.040366001427 4.260240078 0.11060400307 -0.037006799132 
4.2477197647 0.080380000174 -0.054740898311 4.249519825 0.085505001247 -0.052186001092 4.2514600754 0.090649202466 -0.049441900104 
4.2403697968 0.05410990119 -0.065163202584 4.2416200638 0.059446901083 -0.063397102058 4.2429699898 0.064704798162 -0.061484999955 
4.2444400787 0.0699794963 -0.059392098337 4.2365899086 0.032631501555 -0.070538602769 4.2373600006 0.038040798157 -0.069442100823 
4.2382497787 0.043411999941 -0.068183198571 4.2392601967 0.048801399767 -0.066747799516 4.2346901894 0.010904800147 -0.073237396777 
4.2349801064 0.016355799511 -0.072814702988 4.2354001999 0.021788900718 -0.072224497795 4.235929966 0.027219099924 -0.071465097368 
4.2345099449 -0.0054434100166 -0.073491096497 4.2344498634 1.5308100547e-17 -0.073575302958 4.2345099449 0.0054613798857 -0.07349050045 
4.2349801064 -0.016369899735 -0.072813399136 4.2359399796 -0.027240499854 -0.071461699903 4.2354001999 -0.021788900718 -0.072224497795 
4.2365899086 -0.032631501555 -0.070538602769 4.2416200638 -0.059436298907 -0.063400797546 4.2403697968 -0.05410990119 -0.065163202584 
4.2477297783 -0.080396398902 -0.054733000696 4.249519825 -0.085505001247 -0.052186001092 4.2556300163 -0.10071499646 -0.043534200639 
4.256770134 -0.10325399786 -0.041928298771 4.2626900673 -0.11543700099 -0.033541999757 4.260240078 -0.11059699953 -0.037011101842 

METADATA
INFORMATION 2
NAME L2_NORM_RANGE LOCATION vtkDataArray
DATA 2 4.23509 4.76122 
NAME L2_NORM_FINITE_RANGE LOCATION vtkDataArray
DATA 2 4.23509 4.76122 

CELLS 228 454
OFFSETS vtktypeint64
0 2 4 6 8 10 12 14 16 
18 20 22 24 26 28 30 32 34 
36 38 40 42 44 46 48 50 52 
54 56 58 60 62 64 66 68 70 
72 74 76 78 80 82 84 86 88 
90 92 94 96 98 100 102 104 106 
108 110 112 114 116 118 120 122 124 
126 128 130 132 134 136 138 140 142 
144 146 148 150 152 154 156 158 160 
162 164 166 168 170 172 174 176 178 
180 182 184 186 188 190 192 194 196 
198 200 202 204 206 208 210 212 214 
216 218 220 222 224 226 228 230 232 
234 236 238 240 242 244 246 248 250 
252 254 256 258 260 262 264 266 268 
270 272 274 276 278 280 282 284 286 
288 290 292 294 296 298 300 302 304 
306 308 310 312 314 316 318 320 322 
324 326 328 330 332 334 336 338 340 
342 344 346 348 350 352 354 356 358 
360 362 364 366 368 370 372 374 376 
378 380 382 384 386 388 390 392 394 
396 398 400 402 404 406 408 410 412 
414 416 418 420 422 424 426 428 430 
432 434 436 438 440 442 444 446 448 
450 452 454 
CONNECTIVITY vtktypeint64
0 1 2 3 4 5 8 9 10 
11 13 14 14 12 16 13 18 15 
19 20 21 22 22 17 23 19 24 
23 25 24 26 25 27 26 28 27 
29 28 30 29 31 30 32 31 33 
32 34 33 35 36 36 37 37 38 
38 34 39 40 40 41 41 42 42 
35 9 43 43 44 44 45 45 39 
46 8 47 46 48 47 49 48 50 
49 51 50 52 51 53 52 54 53 
55 54 56 55 57 56 58 57 59 
58 60 59 61 60 62 61 63 62 
64 63 65 64 66 65 67 66 68 
67 69 68 70 69 71 70 72 71 
73 72 75 76 76 74 77 78 78 
75 79 80 80 77 81 82 82 79 
83 84 84 81 85 86 86 83 87 
88 88 85 89 90 90 87 91 92 
92 89 93 94 94 91 95 96 96 
93 97 98 98 95 99 100 100 97 
101 102 102 99 104 105 105 106 106 
101 107 103 108 107 109 108 110 109 
111 110 112 111 113 112 115 116 117 
118 118 114 119 115 120 119 122 121 
123 122 125 124 127 126 130 128 132 
129 134 131 135 133 136 137 138 139 
140 141 142 143 145 144 147 146 148 
147 150 149 152 153 153 151 154 155 
155 156 157 152 158 159 159 160 160 
161 161 154 162 163 163 164 165 158 
166 167 167 168 169 170 170 171 172 
173 173 174 174 175 175 169 176 177 
177 178 178 179 179 172 180 181 181 
182 182 183 183 176 184 185 185 186 
186 187 187 180 188 189 189 190 190 
191 191 184 7 192 192 193 193 194 
194 188 195 196 196 6 197 198 198 
199 199 200 200 195 201 202 202 203 
203 204 204 197 5 205 205 206 206 
207 207 201 208 209 209 210 210 211 
212 213 213 214 214 215 215 208 216 
217 217 218 218 219 219 212 3 220 
220 221 221 222 222 216 223 224 224 
225 225 226 226 2 227 228 228 229 
229 230 230 223 231 232 232 233 233 
234 234 227 235 236 236 237 238 239 
239 231 1 240 241 242 242 235 244 
245 245 246 247 248 248 249 249 250 
250 243 252 253 254 247 255 256 257 
251 260 258 261 259 262 263 265 264 
267 266 268 269 
CELL_TYPES 227
3
3
3
3
3
3
3
3
3
3
3
3
3
3
3
3
3
3
3
3
3
3
3
3
3
3
3
3
3
3
3
3
3
3
3
3
3
3
3
3
3
3
3
3
3
3
3
3
3
3
3
3
3
3
3
3
3
3
3
3
3
3
3
3
3
3
3
3
3
3
3
3
3
3
3
3
3
3
3
3
3
3
3
3
3
3
3
3
3
3
3
3
3
3
3
3
3
3
3
3
3
3
3
3
3
3
3
3
3
3
3
3
3
3
3
3
3
3
3
3
3
3
3
3
3
3
3
3
3
3
3
3
3
3
3
3
3
3
3
3
3
3
3
3
3
3
3
3
3
3
3
3
3
3
3
3
3
3
3
3
3
3
3
3
3
3
3
3
3
3
3
3
3
3
3
3
3
3
3
3
3
3
3
3
3
3
3
3
3
3
3
3
3
3
3
3
3
3
3
3
3
3
3
3
3
3
3
3
3
3
3
3
3
3
3
3
3
3
3
3
3
3
3
3
3
3
3

CELL_DATA 227
SCALARS STLSolidLabeling float
LOOKUP_TABLE default
0 0 0 0 0 0 0 0 0 
0 0 0 0 0 0 0 0 0 
0 0 0 0 0 0 0 0 0 
0 0 0 0 0 0 0 0 0 
0 0 0 0 0 0 0 0 0 
0 0 0 0 0 0 0 0 0 
0 0 0 0 0 0 0 0 0 
0 0 0 0 0 0 0 0 0 
0 0 0 0 0 0 0 0 0 
0 0 0 0 0 0 0 0 0 
0 0 0 0 0 0 0 0 0 
0 0 0 0 0 0 0 0 0 
0 0 0 0 0 0 0 0 0 
0 0 0 0 0 0 0 0 0 
0 0 0 0 0 0 0 0 0 
0 0 0 0 0 0 0 0 0 
0 0 0 0 0 0 0 0 0 
0 0 0 0 0 0 0 0 0 
0 0 0 0 0 0 0 0 0 
0 0 0 0 0 0 0 0 0 
0 0 0 0 0 0 0 0 0 
0 0 0 0 0 0 0 0 0 
0 0 0 0 0 0 0 0 0 
0 0 0 0 0 0 0 0 0 
0 0 0 0 0 0 0 0 0 
0 0 
METADATA
INFORMATION 0

FIELD FieldData 1
vtkOriginalCellIds 1 227 vtkIdType
550 551 552 555 556 558 559 561 563 
564 566 567 568 569 570 571 572 573 
574 575 576 577 578 579 580 581 582 
583 584 585 586 587 588 589 590 591 
592 593 594 595 596 597 598 599 600 
601 602 603 604 605 606 607 608 609 
610 611 612 613 614 615 616 617 618 
619 621 622 623 624 625 626 627 628 
629 630 631 632 633 634 635 636 637 
638 639 640 641 642 643 644 645 646 
647 648 651 652 653 654 655 656 657 
658 659 660 662 664 665 666 667 669 
670 672 674 677 679 681 683 684 687 
703 708 714 716 717 719 721 722 723 
724 726 727 728 729 730 731 732 734 
736 737 739 740 743 744 745 746 747 
748 749 750 751 752 753 754 755 756 
757 758 759 760 761 762 763 764 765 
766 767 768 769 770 771 772 773 774 
775 776 777 778 779 780 781 782 783 
785 786 787 788 789 790 791 792 793 
794 795 796 797 798 799 800 801 802 
803 804 805 806 807 808 809 810 812 
813 814 816 817 819 820 822 823 824 
825 827 829 830 832 836 838 841 848 
852 854 
POINT_DATA 270
FIELD FieldData 1
vtkOriginalPointIds 1 270 vtkIdType
550 551 552 553 554 555 556 557 560 
561 562 563 564 565 566 567 568 569 
570 571 572 573 574 575 576 577 578 
579 580 581 582 583 584 585 586 587 
588 589 590 591 592 593 594 595 596 
597 598 599 600 601 602 603 604 605 
606 607 608 609 610 611 612 613 614 
615 616 617 618 619 620 621 622 623 
624 625 626 627 628 629 630 631 632 
633 634 635 636 637 638 639 640 641 
642 643 644 645 646 647 648 649 650 
651 652 653 654 655 657 658 659 660 
661 662 663 664 665 666 667 668 669 
670 671 672 673 674 675 676 677 678 
679 680 681 682 683 684 685 686 687 
689 690 691 693 694 708 709 713 714 
718 719 720 721 722 723 724 725 726 
727 728 729 730 731 732 733 734 735 
736 737 738 739 741 742 743 744 745 
746 748 749 750 751 752 753 754 755 
756 757 758 759 760 761 762 763 764 
765 766 767 768 769 770 771 772 773 
774 775 776 777 778 779 780 781 782 
783 784 785 786 787 788 789 790 791 
792 793 794 795 796 797 798 799 800 
801 802 803 804 805 806 807 808 809 
810 811 812 813 814 815 816 817 818 
819 820 821 822 823 824 825 826 827 
828 829 830 831 832 833 834 836 837 
839 842 843 848 849 852 853 854 855 

